# vtk DataFile Version 2.0
Volume example
ASCII
DATASET STRUCTURED_POINTS
DIMENSIONS 3 4 2
SPACING 1 1 1
ORIGIN 0 0 0
POINT_DATA 24
SCALARS volume_scalars double 1
LOOKUP_TABLE default
0
1
2
0
1
2
0
1
2
0
1
2
0
1
2
0
1
2
0
1
2
0
1
2